Gromacs Runs One Microsecond At Cannonball Speeds
   18
  629HOH     OW    1  -4.912   4.777   0.237
  629HOH    HW1    2  -4.830   4.777   0.295
  629HOH    HW2    3  -4.994   4.777   0.295
  637HOH     OW    4  -5.325   5.333   0.647
  637HOH    HW1    5  -5.243   5.333   0.705
  637HOH    HW2    6  -5.325   5.415   0.589
  664HOH     OW    7  -5.511   5.137   1.720
  664HOH    HW1    8  -5.429   5.137   1.777
  664HOH    HW2    9  -5.511   5.055   1.662
  685HOH     OW   10  -5.450   4.223   0.537
  685HOH    HW1   11  -5.531   4.223   0.595
  685HOH    HW2   12  -5.450   4.305   0.480
  778HOH     OW   13  -5.384   4.974   0.518
  778HOH    HW1   14  -5.466   4.974   0.576
  778HOH    HW2   15  -5.384   4.892   0.461
  788HOH     OW   16  -5.357   4.660   0.211
  788HOH    HW1   17  -5.357   4.742   0.153
  788HOH    HW2   18  -5.357   4.578   0.153
  10.31480  16.08910  10.87800
