Giant Rising Ordinary Mutants for A Clerical Setup
    6
  629HOH      O    1  -4.912   4.777   0.237
  637HOH      O    2  -5.325   5.333   0.647
  664HOH      O    3  -5.511   5.137   1.720
  685HOH      O    4  -5.450   4.223   0.537
  778HOH      O    5  -5.384   4.974   0.518
  788HOH      O    6  -5.357   4.660   0.211
  10.31480  16.08910  10.87800
